VSe2
1.0
19.974429 0.0 0.0
-9.987214 17.298363 0.0
0.0 0.0 23.138919
Se V
72 36
Direct configuration=     1
0.113059 0.066369 0.999734 Se
0.060366 0.118707 0.143238 Se
0.275982 0.055793 0.998293 Se
0.229309 0.116232 0.141140 Se
0.438773 0.052261 0.003869 Se
0.391943 0.111737 0.134348 Se
0.617898 0.054778 0.007113 Se
0.564256 0.121485 0.140331 Se
0.774118 0.043573 0.002732 Se
0.727828 0.108977 0.138933 Se
0.943319 0.048620 0.000101 Se
0.890598 0.102585 0.140995 Se
0.119854 0.226746 0.002393 Se
0.059291 0.277358 0.139822 Se
0.288543 0.227701 0.004025 Se
0.229885 0.289408 0.139743 Se
0.444727 0.221835 0.997394 Se
0.374780 0.270220 0.133217 Se
0.618950 0.224057 0.999395 Se
0.551696 0.277361 0.137557 Se
0.783680 0.212403 0.002619 Se
0.721446 0.276088 0.138444 Se
0.945440 0.223418 0.000069 Se
0.889484 0.278082 0.136964 Se
0.108614 0.384232 0.999969 Se
0.048565 0.441041 0.139352 Se
0.280973 0.396024 0.997081 Se
0.211675 0.442520 0.138630 Se
0.444147 0.398335 0.001214 Se
0.392326 0.452073 0.138866 Se
0.612533 0.385888 0.008132 Se
0.552498 0.445213 0.128752 Se
0.778273 0.384953 0.999775 Se
0.724006 0.444871 0.139314 Se
0.945855 0.387967 0.002945 Se
0.889088 0.440026 0.135173 Se
0.107787 0.551077 0.000280 Se
0.055288 0.613323 0.137072 Se
0.269902 0.554789 0.999459 Se
0.212089 0.605202 0.136043 Se
0.444024 0.558999 0.998864 Se
0.386251 0.613905 0.137595 Se
0.602483 0.548010 0.999181 Se
0.551508 0.609032 0.138290 Se
0.777839 0.551294 0.002747 Se
0.719692 0.609426 0.135364 Se
0.944908 0.565159 0.995949 Se
0.886208 0.610276 0.134637 Se
0.112659 0.725953 0.993617 Se
0.058268 0.783151 0.135870 Se
0.274379 0.716802 0.996411 Se
0.221019 0.776315 0.128562 Se
0.446202 0.724156 0.001355 Se
0.389091 0.778558 0.136793 Se
0.612649 0.721348 0.988669 Se
0.553781 0.772044 0.140787 Se
0.774664 0.713312 0.998325 Se
0.719868 0.773466 0.129932 Se
0.942442 0.724797 0.999225 Se
0.890372 0.774011 0.131707 Se
0.108921 0.895663 0.996192 Se
0.054077 0.949434 0.137094 Se
0.278200 0.890578 0.998614 Se
0.209483 0.939031 0.137799 Se
0.460427 0.898718 0.999155 Se
0.388274 0.946548 0.132136 Se
0.611826 0.890795 0.000823 Se
0.556556 0.946536 0.132973 Se
0.778092 0.884672 0.002114 Se
0.724569 0.937853 0.138516 Se
0.948355 0.895793 0.001525 Se
0.886669 0.936023 0.135255 Se
0.003376 0.008309 0.071702 V
0.160734 0.007871 0.071695 V
0.321104 0.995949 0.068653 V
0.499056 0.005747 0.069462 V
0.679875 0.002787 0.074851 V
0.832118 0.990254 0.071560 V
0.999134 0.166047 0.070656 V
0.167436 0.176372 0.070674 V
0.329960 0.152586 0.070092 V
0.512028 0.173192 0.066023 V
0.665379 0.165457 0.069667 V
0.839829 0.155181 0.069516 V
0.996970 0.325731 0.072541 V
0.175848 0.341676 0.070588 V
0.333272 0.348855 0.065804 V
0.489661 0.322280 0.070575 V
0.672111 0.328576 0.070287 V
0.833688 0.322776 0.063858 V
0.996306 0.510869 0.066233 V
0.153860 0.491543 0.070495 V
0.331589 0.511280 0.070946 V
0.500149 0.513903 0.068908 V
0.665290 0.498559 0.068445 V
0.832584 0.496325 0.070179 V
0.006804 0.674242 0.065597 V
0.162034 0.667959 0.061630 V
0.323979 0.658982 0.068718 V
0.510878 0.672979 0.063562 V
0.660237 0.662419 0.063858 V
0.837031 0.663276 0.067636 V
0.006411 0.841139 0.061306 V
0.162800 0.833196 0.063332 V
0.337116 0.829985 0.062111 V
0.503899 0.833557 0.071925 V
0.656763 0.825641 0.065136 V
0.836662 0.832274 0.065370 V
Direct configuration=     2
0.113177 0.066394 0.999724 Se
0.060424 0.118666 0.143234 Se
0.276003 0.055760 0.998285 Se
0.229399 0.116459 0.141138 Se
0.438749 0.052249 0.003877 Se
0.392093 0.111845 0.134392 Se
0.617790 0.054840 0.006997 Se
0.564195 0.121483 0.140360 Se
0.774097 0.043653 0.002567 Se
0.727735 0.108823 0.138830 Se
0.943408 0.048647 0.000227 Se
0.890744 0.102743 0.140855 Se
0.119719 0.226693 0.002260 Se
0.059247 0.277236 0.139770 Se
0.288668 0.227789 0.004027 Se
0.229957 0.289358 0.139665 Se
0.444921 0.221918 0.997499 Se
0.374854 0.270433 0.133205 Se
0.618954 0.224007 0.999237 Se
0.551712 0.277368 0.137511 Se
0.783476 0.212304 0.002608 Se
0.721331 0.275981 0.138416 Se
0.945398 0.223324 0.000045 Se
0.889439 0.278107 0.137019 Se
0.108621 0.384360 0.000104 Se
0.048369 0.440855 0.139236 Se
0.281025 0.395905 0.997033 Se
0.211658 0.442494 0.138570 Se
0.444079 0.398232 0.001213 Se
0.392442 0.452206 0.138799 Se
0.612583 0.385844 0.008079 Se
0.552392 0.445183 0.128684 Se
0.778236 0.384903 0.999806 Se
0.723970 0.444871 0.139314 Se
0.945918 0.388072 0.002903 Se
0.889019 0.440099 0.135187 Se
0.107697 0.551174 0.000461 Se
0.055217 0.613163 0.137171 Se
0.270059 0.554630 0.999490 Se
0.212336 0.605363 0.136213 Se
0.444019 0.558967 0.998915 Se
0.386189 0.613966 0.137600 Se
0.602569 0.547945 0.999263 Se
0.551299 0.608959 0.138254 Se
0.777769 0.551268 0.002694 Se
0.719566 0.609265 0.135353 Se
0.945128 0.565316 0.995832 Se
0.886170 0.610192 0.134608 Se
0.112620 0.726082 0.993622 Se
0.058248 0.783044 0.135850 Se
0.274397 0.716738 0.996370 Se
0.221133 0.776287 0.128451 Se
0.446178 0.724251 0.001375 Se
0.389071 0.778515 0.136777 Se
0.612525 0.721421 0.988660 Se
0.553831 0.772059 0.140767 Se
0.774587 0.713128 0.998346 Se
0.719961 0.773358 0.129878 Se
0.942326 0.724793 0.999348 Se
0.890432 0.774032 0.131721 Se
0.108829 0.895704 0.996274 Se
0.054113 0.949337 0.137192 Se
0.278120 0.890627 0.998577 Se
0.209434 0.939179 0.137868 Se
0.460339 0.898664 0.999276 Se
0.388368 0.946590 0.132198 Se
0.611770 0.890787 0.000749 Se
0.556632 0.946611 0.133047 Se
0.778081 0.884759 0.002110 Se
0.724472 0.937839 0.138681 Se
0.948436 0.895917 0.001543 Se
0.886685 0.935945 0.135173 Se
0.003582 0.008317 0.071724 V
0.160664 0.007757 0.071712 V
0.321031 0.995940 0.068646 V
0.499210 0.006034 0.069288 V
0.679844 0.002701 0.074595 V
0.832185 0.990370 0.071556 V
0.999131 0.166234 0.070698 V
0.167625 0.176548 0.070686 V
0.330138 0.152620 0.070057 V
0.512054 0.173229 0.066090 V
0.665327 0.165178 0.069627 V
0.839628 0.155153 0.069650 V
0.997111 0.325682 0.072671 V
0.176084 0.341839 0.070500 V
0.333059 0.348598 0.065791 V
0.489704 0.322475 0.070544 V
0.672187 0.328527 0.070385 V
0.833608 0.322888 0.063927 V
0.996567 0.511135 0.066394 V
0.154046 0.491652 0.070534 V
0.331346 0.511178 0.071060 V
0.500349 0.514002 0.068916 V
0.665145 0.498435 0.068575 V
0.832491 0.496109 0.070019 V
0.006604 0.674164 0.065838 V
0.161956 0.667875 0.061594 V
0.324054 0.659016 0.068518 V
0.510836 0.672966 0.063665 V
0.660094 0.662432 0.063962 V
0.836939 0.663209 0.067794 V
0.006441 0.841100 0.061255 V
0.162743 0.833106 0.063350 V
0.337190 0.830040 0.062032 V
0.503745 0.833405 0.071885 V
0.656954 0.825670 0.065109 V
0.836600 0.832195 0.065284 V
Direct configuration=     3
0.113296 0.066416 0.999717 Se
0.060483 0.118622 0.143228 Se
0.276020 0.055725 0.998275 Se
0.229482 0.116684 0.141135 Se
0.438730 0.052243 0.003883 Se
0.392243 0.111950 0.134438 Se
0.617680 0.054903 0.006879 Se
0.564129 0.121475 0.140389 Se
0.774082 0.043738 0.002400 Se
0.727644 0.108671 0.138727 Se
0.943497 0.048680 0.000354 Se
0.890891 0.102904 0.140715 Se
0.119578 0.226642 0.002127 Se
0.059201 0.277114 0.139718 Se
0.288787 0.227877 0.004032 Se
0.230027 0.289303 0.139586 Se
0.445115 0.222000 0.997606 Se
0.374937 0.270652 0.133193 Se
0.618956 0.223955 0.999076 Se
0.551730 0.277375 0.137466 Se
0.783270 0.212207 0.002595 Se
0.721221 0.275874 0.138390 Se
0.945358 0.223226 0.000021 Se
0.889390 0.278125 0.137076 Se
0.108627 0.384490 0.000241 Se
0.048174 0.440671 0.139117 Se
0.281075 0.395787 0.996985 Se
0.211648 0.442473 0.138513 Se
0.444011 0.398124 0.001213 Se
0.392554 0.452338 0.138731 Se
0.612629 0.385799 0.008022 Se
0.552284 0.445150 0.128620 Se
0.778200 0.384854 0.999837 Se
0.723932 0.444869 0.139312 Se
0.945981 0.388176 0.002861 Se
0.888950 0.440173 0.135199 Se
0.107605 0.551273 0.000641 Se
0.055145 0.613004 0.137269 Se
0.270218 0.554471 0.999523 Se
0.212586 0.605529 0.136381 Se
0.444011 0.558937 0.998965 Se
0.386128 0.614030 0.137604 Se
0.602660 0.547883 0.999343 Se
0.551096 0.608893 0.138220 Se
0.777698 0.551243 0.002638 Se
0.719439 0.609105 0.135340 Se
0.945346 0.565466 0.995717 Se
0.886137 0.610107 0.134581 Se
0.112579 0.726210 0.993625 Se
0.058225 0.782935 0.135829 Se
0.274419 0.716677 0.996327 Se
0.221249 0.776262 0.128343 Se
0.446152 0.724346 0.001395 Se
0.389049 0.778472 0.136760 Se
0.612399 0.721496 0.988655 Se
0.553882 0.772077 0.140744 Se
0.774511 0.712947 0.998367 Se
0.720055 0.773250 0.129825 Se
0.942213 0.724788 0.999470 Se
0.890493 0.774057 0.131737 Se
0.108743 0.895748 0.996355 Se
0.054147 0.949236 0.137292 Se
0.278040 0.890674 0.998538 Se
0.209391 0.939331 0.137935 Se
0.460243 0.898605 0.999397 Se
0.388460 0.946629 0.132262 Se
0.611715 0.890778 0.000675 Se
0.556709 0.946686 0.133125 Se
0.778068 0.884847 0.002102 Se
0.724371 0.937822 0.138847 Se
0.948515 0.896040 0.001558 Se
0.886704 0.935869 0.135095 Se
0.003791 0.008329 0.071744 V
0.160601 0.007647 0.071723 V
0.320954 0.995925 0.068642 V
0.499366 0.006324 0.069116 V
0.679805 0.002609 0.074339 V
0.832256 0.990493 0.071549 V
0.999130 0.166419 0.070738 V
0.167816 0.176720 0.070700 V
0.330317 0.152663 0.070017 V
0.512074 0.173265 0.066159 V
0.665275 0.164900 0.069588 V
0.839429 0.155129 0.069787 V
0.997260 0.325636 0.072798 V
0.176314 0.341999 0.070407 V
0.332852 0.348341 0.065780 V
0.489745 0.322671 0.070513 V
0.672264 0.328486 0.070483 V
0.833524 0.323003 0.064000 V
0.996830 0.511398 0.066556 V
0.154232 0.491761 0.070571 V
0.331103 0.511066 0.071172 V
0.500542 0.514090 0.068919 V
0.665005 0.498313 0.068707 V
0.832398 0.495892 0.069857 V
0.006402 0.674085 0.066082 V
0.161878 0.667790 0.061564 V
0.324129 0.659054 0.068321 V
0.510788 0.672952 0.063769 V
0.659953 0.662445 0.064068 V
0.836842 0.663142 0.067950 V
0.006468 0.841054 0.061216 V
0.162687 0.833017 0.063369 V
0.337265 0.830096 0.061956 V
0.503589 0.833249 0.071842 V
0.657148 0.825700 0.065083 V
0.836532 0.832107 0.065197 V
Direct configuration=     4
0.113415 0.066435 0.999713 Se
0.060540 0.118576 0.143218 Se
0.276033 0.055688 0.998266 Se
0.229559 0.116905 0.141130 Se
0.438716 0.052241 0.003886 Se
0.392395 0.112053 0.134486 Se
0.617569 0.054966 0.006757 Se
0.564057 0.121460 0.140417 Se
0.774075 0.043828 0.002229 Se
0.727553 0.108523 0.138626 Se
0.943587 0.048719 0.000482 Se
0.891038 0.103068 0.140574 Se
0.119432 0.226592 0.001993 Se
0.059154 0.276993 0.139664 Se
0.288901 0.227963 0.004040 Se
0.230094 0.289246 0.139507 Se
0.445310 0.222081 0.997715 Se
0.375028 0.270878 0.133180 Se
0.618955 0.223900 0.998913 Se
0.551751 0.277383 0.137421 Se
0.783061 0.212111 0.002582 Se
0.721117 0.275767 0.138365 Se
0.945319 0.223125 0.999996 Se
0.889338 0.278138 0.137136 Se
0.108633 0.384621 0.000380 Se
0.047979 0.440488 0.138996 Se
0.281122 0.395672 0.996937 Se
0.211646 0.442457 0.138459 Se
0.443943 0.398011 0.001215 Se
0.392661 0.452467 0.138662 Se
0.612672 0.385752 0.007960 Se
0.552175 0.445114 0.128561 Se
0.778165 0.384805 0.999869 Se
0.723893 0.444864 0.139309 Se
0.946043 0.388282 0.002819 Se
0.888881 0.440250 0.135212 Se
0.107510 0.551371 0.000817 Se
0.055075 0.612848 0.137365 Se
0.270379 0.554310 0.999555 Se
0.212839 0.605699 0.136547 Se
0.444000 0.558908 0.999014 Se
0.386068 0.614095 0.137610 Se
0.602758 0.547824 0.999421 Se
0.550899 0.608836 0.138188 Se
0.777626 0.551217 0.002578 Se
0.719313 0.608948 0.135326 Se
0.945562 0.565610 0.995604 Se
0.886109 0.610023 0.134558 Se
0.112535 0.726338 0.993628 Se
0.058199 0.782824 0.135805 Se
0.274443 0.716619 0.996284 Se
0.221368 0.776240 0.128235 Se
0.446124 0.724439 0.001417 Se
0.389026 0.778427 0.136739 Se
0.612274 0.721571 0.988656 Se
0.553936 0.772098 0.140718 Se
0.774435 0.712770 0.998390 Se
0.720149 0.773141 0.129774 Se
0.942103 0.724784 0.999588 Se
0.890555 0.774086 0.131755 Se
0.108662 0.895795 0.996435 Se
0.054182 0.949132 0.137393 Se
0.277959 0.890721 0.998498 Se
0.209356 0.939486 0.137999 Se
0.460139 0.898541 0.999520 Se
0.388549 0.946665 0.132328 Se
0.611661 0.890770 0.000603 Se
0.556787 0.946762 0.133205 Se
0.778052 0.884934 0.002091 Se
0.724267 0.937803 0.139014 Se
0.948592 0.896162 0.001570 Se
0.886727 0.935795 0.135022 Se
0.004001 0.008344 0.071762 V
0.160546 0.007540 0.071729 V
0.320874 0.995905 0.068641 V
0.499524 0.006616 0.068946 V
0.679757 0.002509 0.074084 V
0.832332 0.990622 0.071538 V
0.999129 0.166600 0.070777 V
0.168010 0.176888 0.070716 V
0.330499 0.152714 0.069973 V
0.512088 0.173300 0.066230 V
0.665225 0.164623 0.069550 V
0.839232 0.155110 0.069927 V
0.997416 0.325592 0.072922 V
0.176538 0.342153 0.070309 V
0.332653 0.348083 0.065772 V
0.489785 0.322869 0.070479 V
0.672342 0.328450 0.070583 V
0.833437 0.323121 0.064075 V
0.997094 0.511657 0.066716 V
0.154420 0.491871 0.070608 V
0.330859 0.510944 0.071280 V
0.500727 0.514167 0.068917 V
0.664870 0.498195 0.068841 V
0.832305 0.495675 0.069692 V
0.006201 0.674005 0.066327 V
0.161800 0.667702 0.061541 V
0.324204 0.659096 0.068125 V
0.510734 0.672935 0.063872 V
0.659812 0.662458 0.064175 V
0.836740 0.663076 0.068104 V
0.006492 0.841003 0.061188 V
0.162633 0.832928 0.063391 V
0.337340 0.830151 0.061883 V
0.503431 0.833088 0.071797 V
0.657345 0.825730 0.065058 V
0.836459 0.832009 0.065109 V
Direct configuration=     5
0.113534 0.066452 0.999712 Se
0.060598 0.118527 0.143205 Se
0.276044 0.055650 0.998255 Se
0.229630 0.117123 0.141122 Se
0.438705 0.052244 0.003888 Se
0.392547 0.112153 0.134536 Se
0.617456 0.055029 0.006633 Se
0.563980 0.121438 0.140444 Se
0.774074 0.043924 0.002055 Se
0.727462 0.108377 0.138526 Se
0.943678 0.048764 0.000610 Se
0.891185 0.103233 0.140433 Se
0.119282 0.226542 0.001859 Se
0.059105 0.276873 0.139609 Se
0.289008 0.228047 0.004050 Se
0.230159 0.289184 0.139429 Se
0.445504 0.222161 0.997826 Se
0.375128 0.271110 0.133167 Se
0.618953 0.223844 0.998748 Se
0.551774 0.277391 0.137377 Se
0.782848 0.212015 0.002568 Se
0.721017 0.275661 0.138341 Se
0.945282 0.223019 0.999972 Se
0.889283 0.278146 0.137197 Se
0.108639 0.384754 0.000520 Se
0.047785 0.440307 0.138872 Se
0.281166 0.395558 0.996888 Se
0.211653 0.442445 0.138407 Se
0.443876 0.397894 0.001216 Se
0.392764 0.452593 0.138593 Se
0.612711 0.385705 0.007895 Se
0.552062 0.445074 0.128507 Se
0.778131 0.384758 0.999901 Se
0.723853 0.444858 0.139304 Se
0.946106 0.388388 0.002777 Se
0.888812 0.440327 0.135223 Se
0.107414 0.551470 0.000992 Se
0.055004 0.612694 0.137459 Se
0.270542 0.554149 0.999588 Se
0.213095 0.605875 0.136710 Se
0.443987 0.558879 0.999063 Se
0.386010 0.614162 0.137615 Se
0.602861 0.547768 0.999497 Se
0.550709 0.608787 0.138159 Se
0.777553 0.551191 0.002516 Se
0.719187 0.608792 0.135310 Se
0.945777 0.565748 0.995495 Se
0.886086 0.609939 0.134537 Se
0.112489 0.726464 0.993631 Se
0.058170 0.782712 0.135780 Se
0.274471 0.716565 0.996241 Se
0.221490 0.776221 0.128130 Se
0.446094 0.724531 0.001439 Se
0.389001 0.778383 0.136717 Se
0.612148 0.721648 0.988662 Se
0.553991 0.772121 0.140690 Se
0.774360 0.712596 0.998412 Se
0.720244 0.773033 0.129726 Se
0.941995 0.724779 0.999705 Se
0.890618 0.774119 0.131774 Se
0.108586 0.895844 0.996513 Se
0.054215 0.949025 0.137497 Se
0.277879 0.890768 0.998457 Se
0.209326 0.939644 0.138061 Se
0.460029 0.898472 0.999645 Se
0.388637 0.946698 0.132395 Se
0.611608 0.890760 0.000532 Se
0.556866 0.946838 0.133288 Se
0.778035 0.885020 0.002077 Se
0.724159 0.937780 0.139182 Se
0.948666 0.896282 0.001579 Se
0.886752 0.935724 0.134954 Se
0.004213 0.008364 0.071778 V
0.160500 0.007437 0.071730 V
0.320792 0.995880 0.068646 V
0.499685 0.006909 0.068779 V
0.679701 0.002402 0.073831 V
0.832412 0.990758 0.071523 V
0.999130 0.166778 0.070815 V
0.168207 0.177053 0.070734 V
0.330683 0.152773 0.069924 V
0.512097 0.173333 0.066301 V
0.665176 0.164348 0.069513 V
0.839038 0.155095 0.070068 V
0.997578 0.325550 0.073043 V
0.176755 0.342302 0.070206 V
0.332461 0.347825 0.065767 V
0.489822 0.323067 0.070443 V
0.672421 0.328422 0.070684 V
0.833347 0.323244 0.064153 V
0.997357 0.511913 0.066876 V
0.154608 0.491980 0.070643 V
0.330615 0.510813 0.071386 V
0.500905 0.514233 0.068911 V
0.664739 0.498078 0.068975 V
0.832211 0.495459 0.069526 V
0.005998 0.673925 0.066573 V
0.161723 0.667613 0.061524 V
0.324278 0.659141 0.067932 V
0.510674 0.672916 0.063976 V
0.659673 0.662470 0.064281 V
0.836632 0.663010 0.068256 V
0.006511 0.840945 0.061172 V
0.162579 0.832841 0.063415 V
0.337416 0.830208 0.061812 V
0.503273 0.832924 0.071749 V
0.657545 0.825761 0.065036 V
0.836381 0.831903 0.065021 V
Direct configuration=     6
0.113653 0.066467 0.999714 Se
0.060654 0.118477 0.143189 Se
0.276050 0.055611 0.998244 Se
0.229694 0.117337 0.141113 Se
0.438698 0.052251 0.003887 Se
0.392700 0.112250 0.134589 Se
0.617343 0.055091 0.006505 Se
0.563897 0.121410 0.140470 Se
0.774081 0.044025 0.001878 Se
0.727372 0.108235 0.138428 Se
0.943768 0.048814 0.000740 Se
0.891332 0.103401 0.140292 Se
0.119127 0.226494 0.001724 Se
0.059055 0.276754 0.139552 Se
0.289109 0.228131 0.004062 Se
0.230220 0.289120 0.139350 Se
0.445699 0.222241 0.997938 Se
0.375235 0.271349 0.133154 Se
0.618949 0.223785 0.998581 Se
0.551800 0.277401 0.137332 Se
0.782633 0.211921 0.002553 Se
0.720922 0.275554 0.138319 Se
0.945245 0.222910 0.999947 Se
0.889225 0.278149 0.137260 Se
0.108645 0.384887 0.000662 Se
0.047593 0.440128 0.138747 Se
0.281207 0.395447 0.996840 Se
0.211667 0.442438 0.138358 Se
0.443809 0.397772 0.001219 Se
0.392863 0.452717 0.138523 Se
0.612747 0.385656 0.007826 Se
0.551948 0.445030 0.128459 Se
0.778097 0.384712 0.999933 Se
0.723811 0.444850 0.139297 Se
0.946169 0.388495 0.002735 Se
0.888743 0.440406 0.135233 Se
0.107316 0.551569 0.001163 Se
0.054935 0.612543 0.137552 Se
0.270705 0.553987 0.999621 Se
0.213354 0.606055 0.136871 Se
0.443971 0.558852 0.999112 Se
0.385954 0.614230 0.137621 Se
0.602970 0.547716 0.999571 Se
0.550525 0.608746 0.138133 Se
0.777479 0.551165 0.002450 Se
0.719062 0.608638 0.135294 Se
0.945990 0.565880 0.995389 Se
0.886068 0.609854 0.134520 Se
0.112441 0.726589 0.993633 Se
0.058139 0.782598 0.135753 Se
0.274501 0.716515 0.996197 Se
0.221614 0.776205 0.128026 Se
0.446062 0.724621 0.001462 Se
0.388973 0.778337 0.136691 Se
0.612022 0.721725 0.988672 Se
0.554049 0.772148 0.140659 Se
0.774287 0.712425 0.998436 Se
0.720339 0.772924 0.129680 Se
0.941890 0.724774 0.999819 Se
0.890681 0.774155 0.131794 Se
0.108517 0.895895 0.996591 Se
0.054248 0.948915 0.137602 Se
0.277800 0.890813 0.998415 Se
0.209304 0.939806 0.138120 Se
0.459911 0.898400 0.999770 Se
0.388723 0.946729 0.132464 Se
0.611556 0.890751 0.000462 Se
0.556946 0.946913 0.133374 Se
0.778015 0.885106 0.002059 Se
0.724048 0.937755 0.139350 Se
0.948738 0.896401 0.001586 Se
0.886780 0.935654 0.134890 Se
0.004427 0.008388 0.071793 V
0.160462 0.007338 0.071726 V
0.320706 0.995849 0.068654 V
0.499847 0.007205 0.068614 V
0.679636 0.002287 0.073579 V
0.832496 0.990900 0.071505 V
0.999132 0.166952 0.070850 V
0.168405 0.177214 0.070753 V
0.330868 0.152840 0.069871 V
0.512100 0.173365 0.066373 V
0.665129 0.164074 0.069476 V
0.838846 0.155084 0.070212 V
0.997747 0.325510 0.073160 V
0.176965 0.342446 0.070099 V
0.332277 0.347567 0.065764 V
0.489858 0.323268 0.070405 V
0.672500 0.328399 0.070785 V
0.833253 0.323369 0.064233 V
0.997619 0.512164 0.067033 V
0.154798 0.492091 0.070677 V
0.330371 0.510672 0.071488 V
0.501075 0.514289 0.068900 V
0.664614 0.497964 0.069111 V
0.832118 0.495244 0.069358 V
0.005796 0.673844 0.066819 V
0.161646 0.667522 0.061515 V
0.324351 0.659191 0.067743 V
0.510607 0.672896 0.064079 V
0.659536 0.662483 0.064388 V
0.836519 0.662945 0.068405 V
0.006526 0.840881 0.061167 V
0.162528 0.832754 0.063441 V
0.337492 0.830264 0.061745 V
0.503114 0.832756 0.071700 V
0.657747 0.825793 0.065014 V
0.836297 0.831787 0.064932 V
Direct configuration=     7
0.113772 0.066480 0.999719 Se
0.060710 0.118425 0.143170 Se
0.276054 0.055570 0.998232 Se
0.229752 0.117548 0.141102 Se
0.438696 0.052264 0.003884 Se
0.392853 0.112344 0.134643 Se
0.617228 0.055153 0.006374 Se
0.563810 0.121375 0.140495 Se
0.774094 0.044132 0.001698 Se
0.727283 0.108095 0.138331 Se
0.943859 0.048871 0.000870 Se
0.891479 0.103570 0.140151 Se
0.118967 0.226447 0.001589 Se
0.059004 0.276635 0.139496 Se
0.289204 0.228212 0.004077 Se
0.230279 0.289052 0.139272 Se
0.445894 0.222319 0.998052 Se
0.375352 0.271593 0.133140 Se
0.618943 0.223725 0.998412 Se
0.551828 0.277411 0.137288 Se
0.782416 0.211829 0.002537 Se
0.720833 0.275446 0.138298 Se
0.945210 0.222797 0.999923 Se
0.889163 0.278146 0.137325 Se
0.108651 0.385021 0.000804 Se
0.047401 0.439951 0.138619 Se
0.281246 0.395337 0.996791 Se
0.211688 0.442436 0.138312 Se
0.443743 0.397645 0.001223 Se
0.392957 0.452839 0.138452 Se
0.612779 0.385606 0.007753 Se
0.551831 0.444984 0.128415 Se
0.778064 0.384667 0.999966 Se
0.723769 0.444839 0.139289 Se
0.946231 0.388601 0.002694 Se
0.888674 0.440486 0.135243 Se
0.107216 0.551668 0.001331 Se
0.054866 0.612396 0.137644 Se
0.270871 0.553824 0.999654 Se
0.213615 0.606239 0.137030 Se
0.443952 0.558826 0.999161 Se
0.385900 0.614300 0.137626 Se
0.603084 0.547666 0.999643 Se
0.550348 0.608714 0.138110 Se
0.777403 0.551139 0.002383 Se
0.718937 0.608486 0.135276 Se
0.946200 0.566005 0.995286 Se
0.886054 0.609769 0.134505 Se
0.112390 0.726712 0.993634 Se
0.058105 0.782483 0.135725 Se
0.274534 0.716468 0.996152 Se
0.221740 0.776191 0.127925 Se
0.446028 0.724709 0.001486 Se
0.388944 0.778291 0.136663 Se
0.611896 0.721802 0.988688 Se
0.554108 0.772177 0.140625 Se
0.774213 0.712258 0.998461 Se
0.720435 0.772816 0.129637 Se
0.941787 0.724769 0.999931 Se
0.890746 0.774195 0.131816 Se
0.108453 0.895949 0.996667 Se
0.054280 0.948801 0.137708 Se
0.277720 0.890857 0.998372 Se
0.209288 0.939971 0.138177 Se
0.459786 0.898322 0.999896 Se
0.388806 0.946757 0.132534 Se
0.611505 0.890741 0.000393 Se
0.557025 0.946989 0.133461 Se
0.777993 0.885192 0.002038 Se
0.723934 0.937727 0.139517 Se
0.948808 0.896518 0.001589 Se
0.886811 0.935587 0.134831 Se
0.004642 0.008416 0.071805 V
0.160433 0.007243 0.071717 V
0.320617 0.995813 0.068667 V
0.500012 0.007501 0.068453 V
0.679563 0.002165 0.073330 V
0.832584 0.991047 0.071485 V
0.999136 0.167122 0.070884 V
0.168606 0.177370 0.070773 V
0.331055 0.152916 0.069813 V
0.512098 0.173396 0.066445 V
0.665083 0.163802 0.069441 V
0.838657 0.155079 0.070356 V
0.997922 0.325472 0.073273 V
0.177168 0.342584 0.069987 V
0.332100 0.347310 0.065765 V
0.489892 0.323469 0.070365 V
0.672579 0.328382 0.070885 V
0.833157 0.323498 0.064316 V
0.997879 0.512411 0.067189 V
0.154989 0.492202 0.070711 V
0.330127 0.510521 0.071588 V
0.501236 0.514332 0.068883 V
0.664493 0.497852 0.069247 V
0.832025 0.495030 0.069189 V
0.005592 0.673762 0.067066 V
0.161570 0.667430 0.061513 V
0.324424 0.659244 0.067556 V
0.510535 0.672874 0.064182 V
0.659400 0.662495 0.064494 V
0.836401 0.662881 0.068551 V
0.006537 0.840811 0.061175 V
0.162478 0.832667 0.063469 V
0.337568 0.830321 0.061680 V
0.502954 0.832585 0.071649 V
0.657951 0.825825 0.064995 V
0.836208 0.831662 0.064842 V
Direct configuration=     8
0.113891 0.066490 0.999728 Se
0.060766 0.118371 0.143147 Se
0.276053 0.055528 0.998220 Se
0.229803 0.117755 0.141088 Se
0.438697 0.052281 0.003879 Se
0.393006 0.112435 0.134700 Se
0.617112 0.055215 0.006240 Se
0.563717 0.121333 0.140518 Se
0.774115 0.044244 0.001516 Se
0.727193 0.107959 0.138236 Se
0.943951 0.048933 0.001001 Se
0.891626 0.103741 0.140011 Se
0.118803 0.226401 0.001454 Se
0.058953 0.276518 0.139438 Se
0.289293 0.228292 0.004094 Se
0.230335 0.288982 0.139194 Se
0.446089 0.222397 0.998168 Se
0.375476 0.271843 0.133126 Se
0.618935 0.223662 0.998243 Se
0.551859 0.277422 0.137245 Se
0.782197 0.211738 0.002520 Se
0.720749 0.275339 0.138279 Se
0.945176 0.222681 0.999899 Se
0.889098 0.278137 0.137391 Se
0.108656 0.385156 0.000948 Se
0.047211 0.439777 0.138490 Se
0.281282 0.395230 0.996742 Se
0.211718 0.442437 0.138269 Se
0.443677 0.397515 0.001227 Se
0.393046 0.452957 0.138381 Se
0.612809 0.385556 0.007676 Se
0.551713 0.444933 0.128377 Se
0.778031 0.384623 0.999998 Se
0.723725 0.444827 0.139280 Se
0.946293 0.388708 0.002654 Se
0.888606 0.440568 0.135252 Se
0.107114 0.551767 0.001496 Se
0.054799 0.612252 0.137734 Se
0.271037 0.553661 0.999686 Se
0.213879 0.606428 0.137185 Se
0.443930 0.558800 0.999209 Se
0.385848 0.614371 0.137632 Se
0.603205 0.547620 0.999713 Se
0.550177 0.608690 0.138090 Se
0.777327 0.551113 0.002312 Se
0.718813 0.608337 0.135258 Se
0.946409 0.566124 0.995187 Se
0.886045 0.609684 0.134494 Se
0.112337 0.726834 0.993635 Se
0.058069 0.782367 0.135696 Se
0.274569 0.716425 0.996106 Se
0.221869 0.776181 0.127825 Se
0.445992 0.724796 0.001511 Se
0.388914 0.778244 0.136633 Se
0.611770 0.721881 0.988709 Se
0.554169 0.772209 0.140588 Se
0.774141 0.712094 0.998486 Se
0.720532 0.772708 0.129596 Se
0.941688 0.724763 0.000040 Se
0.890810 0.774239 0.131839 Se
0.108395 0.896005 0.996741 Se
0.054312 0.948684 0.137817 Se
0.277640 0.890901 0.998328 Se
0.209279 0.940139 0.138231 Se
0.459654 0.898240 0.000023 Se
0.388888 0.946782 0.132605 Se
0.611454 0.890730 0.000325 Se
0.557105 0.947065 0.133551 Se
0.777969 0.885277 0.002014 Se
0.723818 0.937697 0.139685 Se
0.948876 0.896633 0.001590 Se
0.886844 0.935521 0.134777 Se
0.004860 0.008448 0.071816 V
0.160413 0.007153 0.071704 V
0.320525 0.995771 0.068685 V
0.500179 0.007799 0.068296 V
0.679482 0.002035 0.073083 V
0.832675 0.991201 0.071461 V
0.999142 0.167289 0.070915 V
0.168808 0.177524 0.070794 V
0.331244 0.153000 0.069752 V
0.512091 0.173426 0.066518 V
0.665038 0.163533 0.069407 V
0.838470 0.155078 0.070501 V
0.998101 0.325435 0.073382 V
0.177364 0.342715 0.069870 V
0.331931 0.347053 0.065768 V
0.489924 0.323671 0.070323 V
0.672657 0.328372 0.070986 V
0.833059 0.323630 0.064400 V
0.998138 0.512652 0.067342 V
0.155181 0.492314 0.070743 V
0.329885 0.510362 0.071685 V
0.501389 0.514364 0.068860 V
0.664378 0.497742 0.069383 V
0.831933 0.494817 0.069018 V
0.005389 0.673680 0.067312 V
0.161494 0.667336 0.061518 V
0.324496 0.659300 0.067373 V
0.510457 0.672849 0.064285 V
0.659265 0.662507 0.064599 V
0.836278 0.662817 0.068695 V
0.006544 0.840735 0.061194 V
0.162430 0.832582 0.063499 V
0.337645 0.830380 0.061618 V
0.502795 0.832411 0.071596 V
0.658157 0.825858 0.064977 V
0.836114 0.831528 0.064751 V
Direct configuration=     9
0.114011 0.066498 0.999740 Se
0.060821 0.118315 0.143122 Se
0.276050 0.055485 0.998207 Se
0.229849 0.117959 0.141072 Se
0.438703 0.052303 0.003871 Se
0.393159 0.112524 0.134759 Se
0.616994 0.055276 0.006102 Se
0.563619 0.121285 0.140541 Se
0.774144 0.044361 0.001331 Se
0.727104 0.107826 0.138142 Se
0.944043 0.049000 0.001133 Se
0.891772 0.103913 0.139871 Se
0.118635 0.226356 0.001319 Se
0.058900 0.276402 0.139380 Se
0.289376 0.228370 0.004114 Se
0.230387 0.288908 0.139117 Se
0.446284 0.222473 0.998284 Se
0.375609 0.272099 0.133111 Se
0.618926 0.223598 0.998073 Se
0.551893 0.277435 0.137202 Se
0.781975 0.211650 0.002503 Se
0.720671 0.275231 0.138261 Se
0.945143 0.222561 0.999876 Se
0.889030 0.278124 0.137459 Se
0.108662 0.385292 0.001092 Se
0.047023 0.439606 0.138359 Se
0.281315 0.395125 0.996693 Se
0.211755 0.442444 0.138230 Se
0.443613 0.397380 0.001232 Se
0.393130 0.453072 0.138309 Se
0.612835 0.385504 0.007596 Se
0.551592 0.444879 0.128345 Se
0.777999 0.384580 0.000031 Se
0.723680 0.444812 0.139268 Se
0.946354 0.388815 0.002616 Se
0.888537 0.440651 0.135261 Se
0.107012 0.551866 0.001658 Se
0.054733 0.612112 0.137824 Se
0.271204 0.553497 0.999719 Se
0.214145 0.606620 0.137337 Se
0.443906 0.558775 0.999257 Se
0.385797 0.614443 0.137638 Se
0.603330 0.547578 0.999780 Se
0.550014 0.608676 0.138073 Se
0.777249 0.551087 0.002240 Se
0.718689 0.608190 0.135238 Se
0.946616 0.566236 0.995091 Se
0.886040 0.609598 0.134485 Se
0.112281 0.726954 0.993636 Se
0.058029 0.782250 0.135666 Se
0.274607 0.716385 0.996060 Se
0.222000 0.776174 0.127728 Se
0.445953 0.724880 0.001536 Se
0.388882 0.778197 0.136600 Se
0.611644 0.721959 0.988735 Se
0.554233 0.772244 0.140549 Se
0.774069 0.711934 0.998512 Se
0.720628 0.772601 0.129559 Se
0.941591 0.724756 0.000147 Se
0.890875 0.774287 0.131863 Se
0.108344 0.896063 0.996813 Se
0.054343 0.948564 0.137926 Se
0.277561 0.890944 0.998283 Se
0.209277 0.940310 0.138282 Se
0.459515 0.898154 0.000150 Se
0.388968 0.946804 0.132677 Se
0.611405 0.890718 0.000259 Se
0.557186 0.947141 0.133643 Se
0.777944 0.885361 0.001986 Se
0.723698 0.937665 0.139852 Se
0.948941 0.896746 0.001588 Se
0.886881 0.935459 0.134727 Se
0.005080 0.008484 0.071826 V
0.160401 0.007067 0.071687 V
0.320429 0.995725 0.068707 V
0.500347 0.008098 0.068143 V
0.679392 0.001897 0.072839 V
0.832769 0.991359 0.071434 V
0.999149 0.167451 0.070943 V
0.169011 0.177673 0.070815 V
0.331436 0.153092 0.069688 V
0.512080 0.173455 0.066590 V
0.664995 0.163267 0.069374 V
0.838285 0.155082 0.070646 V
0.998286 0.325400 0.073486 V
0.177551 0.342839 0.069748 V
0.331771 0.346796 0.065774 V
0.489954 0.323874 0.070279 V
0.672735 0.328367 0.071085 V
0.832958 0.323765 0.064485 V
0.998394 0.512888 0.067493 V
0.155373 0.492427 0.070776 V
0.329644 0.510193 0.071779 V
0.501533 0.514385 0.068831 V
0.664267 0.497633 0.069519 V
0.831841 0.494607 0.068845 V
0.005184 0.673596 0.067557 V
0.161418 0.667241 0.061530 V
0.324567 0.659360 0.067195 V
0.510373 0.672823 0.064386 V
0.659133 0.662519 0.064703 V
0.836150 0.662754 0.068836 V
0.006546 0.840652 0.061225 V
0.162384 0.832498 0.063532 V
0.337721 0.830439 0.061560 V
0.502635 0.832235 0.071543 V
0.658365 0.825893 0.064962 V
0.836014 0.831385 0.064659 V
Direct configuration=     10
0.114130 0.066504 0.999755 Se
0.060876 0.118257 0.143093 Se
0.276043 0.055440 0.998194 Se
0.229888 0.118158 0.141053 Se
0.438712 0.052329 0.003861 Se
0.393312 0.112609 0.134820 Se
0.616876 0.055336 0.005962 Se
0.563517 0.121230 0.140562 Se
0.774180 0.044484 0.001143 Se
0.727015 0.107696 0.138050 Se
0.944135 0.049074 0.001265 Se
0.891919 0.104087 0.139733 Se
0.118464 0.226312 0.001185 Se
0.058848 0.276288 0.139322 Se
0.289453 0.228445 0.004135 Se
0.230437 0.288832 0.139040 Se
0.446478 0.222548 0.998402 Se
0.375750 0.272361 0.133096 Se
0.618914 0.223532 0.997903 Se
0.551929 0.277448 0.137159 Se
0.781752 0.211563 0.002485 Se
0.720597 0.275123 0.138245 Se
0.945111 0.222438 0.999854 Se
0.888959 0.278106 0.137528 Se
0.108667 0.385429 0.001237 Se
0.046836 0.439437 0.138226 Se